ITEM: TIMESTEP
245
ITEM: NUMBER OF ATOMS
446
ITEM: BOX BOUNDS ss ss ss
5.5713339999999995e+01 7.7426000000000002e+01
1.5530244000000000e+01 3.5746255999999995e+01
8.8719502475339212e+01 1.1144178826537670e+02
ITEM: ATOMS id type x y z fx fy fz
1 1 60.6211 18.7762 92.285 0.824216 -0.0379721 -0.0334844
3 1 63.1104 18.8132 91.7425 0.182005 0.293714 0.429453
5 1 67.1742 19.0999 91.3891 0.307969 0.456725 0.152943
6 1 57.6099 21.7013 91.9157 -0.990727 -0.172115 0.789876
7 1 58.4264 19.964 90.4651 0.612589 0.0178821 0.747866
9 1 59.0492 22.3714 90.2454 0.552951 -0.231708 -0.47058
8 1 60.8576 20.5421 90.4259 0.414355 0.217565 0.206829
11 1 61.5876 23.0054 91.8403 1.92764e-06 5.5453e-06 -2.1042e-06
13 1 61.2205 22.9715 89.2857 0.305896 -0.137023 0.525771
10 1 59.8579 21.4174 92.4276 -3.17808e-06 1.77388e-07 -2.44022e-06
12 1 63.4656 22.4973 88.734 0.654837 -0.205965 0.336833
14 1 63.2781 21.2391 90.8869 -0.717685 0.0171835 0.264175
15 1 65.1436 20.2121 92.1576 2.36235e-07 1.91332e-06 6.66474e-08
16 1 65.2417 20.6393 89.708 0.585167 0.607322 0.42162
17 1 65.9874 23.1159 89.1937 -0.167074 0.0577067 1.01727
20 1 66.1658 22.5247 92.2067 -3.05446e-06 -2.21814e-06 -5.26718e-07
31 1 63.9175 23.6106 90.9779 -6.42451e-07 -1.15047e-06 1.39215e-06
18 1 67.8665 21.4947 90.7915 -0.136021 0.199957 0.556111
19 1 69.8724 19.9772 92.4597 -0.362781 0.892609 0.448154
23 1 70.335 22.6356 91.7207 -0.202669 0.193787 0.777596
27 1 58.0992 26.535 90.954 0.295367 0.257148 -0.0220857
29 1 57.9589 24.1583 91.5789 -0.336347 -0.750078 0.694084
26 1 59.8447 24.6473 90.4424 0.913931 0.350395 0.140938
28 1 60.448 27.0531 90.5252 -0.407372 -0.133141 0.558527
32 1 62.0282 25.4595 91.9664 -3.11482e-06 -2.73948e-06 -1.80545e-06
34 1 61.8362 25.4501 89.3305 0.598009 -0.0458961 0.331963
33 1 64.1108 24.8544 88.9328 0.456625 -0.109441 0.00372016
35 1 64.4365 27.2537 88.9163 1.21136 -0.177195 -0.185911
36 1 64.2016 26.2606 91.1292 2.48569e-06 5.33102e-07 -2.51226e-06
38 1 66.4369 25.7571 88.8881 0.259378 0.168198 0.870499
40 1 66.2072 24.7917 91.1875 2.47455e-06 4.73573e-06 -3.41423e-06
41 1 66.4932 27.2837 91.2297 -1.12647e-07 -3.4665e-06 7.86786e-07
37 1 68.3641 24.2403 90.4125 0.193589 -0.159048 0.119292
39 1 68.8324 26.9461 90.3949 -0.442423 -0.187671 0.568119
43 1 70.8649 25.1874 91.6425 -0.466607 -0.0744731 0.42706
46 1 58.3614 28.9438 90.9656 0.46759 -0.0805518 0.650884
47 1 60.7253 29.5049 90.5332 0.436015 0.418183 -0.49862
49 1 59.7638 30.962 92.1393 0.574511 0.0845044 0.386714
51 1 62.4421 27.9827 89.6774 -0.00244927 0.2976 0.096424
54 1 62.6528 27.9536 92.084 5.96417e-06 7.68478e-06 -4.20857e-06
50 1 64.4517 29.631 89.2843 0.713215 -0.10011 0.424794
52 1 64.8449 29.0246 92.278 -6.0355e-06 -2.10618e-06 -9.9715e-07
53 1 63.0892 30.1981 91.0768 -6.59816e-06 5.2172e-06 1.13165e-05
55 1 66.7238 28.4829 89.0291 -0.120027 -0.519111 0.585722
56 1 66.7969 29.7606 91.1666 8.81528e-06 5.13143e-06 -2.12141e-06
57 1 69.1752 29.5629 91.0055 0.133917 -0.229565 0.530836
60 1 61.5258 31.941 90.9333 0.344995 0.143751 0.505858
61 1 65.0279 31.7231 90.9042 0.610156 -0.583786 0.10361
63 1 67.5551 32.0427 91.3078 0.391893 -0.222583 0.941177
65 1 70.2099 31.95 92.2009 -0.161152 -0.997836 -0.0265872
2 1 58.6439 19.3882 93.1869 -0.30451 0.466093 0.453549
66 1 59.1232 19.3315 95.9728 0.209385 0.0423086 0.277022
67 1 60.4701 17.551 95.0733 0.453118 0.226313 0.185217
70 1 62.7108 17.7029 94.0547 0.397459 0.523585 0.0758863
86 1 61.8475 19.538 95.4942 9.93779e-07 -1.28691e-06 3.87374e-06
4 1 65.7837 17.6962 92.8389 -0.0841173 0.877842 0.896883
71 1 65.3573 17.0228 95.3479 -0.190694 0.627067 0.0256557
76 1 67.71 16.4434 94.987 -0.139014 0.45998 0.366059
77 1 67.4069 18.7701 95.7551 -8.22247e-07 -1.24145e-06 1.52035e-06
78 1 68.9312 18.1011 93.7718 -0.233917 0.378556 0.109421
80 1 71.4256 17.5735 95.6839 1.68026 0.362909 -0.849421
82 1 56.8949 20.7508 94.0512 0.627288 0.47378 0.489253
83 1 55.8955 22.551 95.3452 0.0405176 -0.161156 1.13518
84 1 57.4656 23.3234 93.9307 1.13089 -0.112785 -1.31222
87 1 62.2545 22.0944 95.2395 -2.09275e-06 -2.72136e-06 1.40098e-06
88 1 60.0468 23.5902 93.9719 -3.36404e-06 -4.17944e-06 1.88515e-06
89 1 59.8893 21.2636 94.8046 -9.47672e-07 -4.95248e-06 -7.38975e-07
93 1 62.047 20.5424 93.1682 -1.93365e-06 -3.38829e-06 4.85154e-06
72 1 64.2218 19.8164 94.393 -1.82884e-06 1.43611e-07 6.28889e-07
95 1 63.8111 22.2353 93.1996 6.51981e-07 6.29436e-06 1.52471e-06
96 1 64.7834 22.3992 95.5331 5.59013e-07 -1.31728e-06 -2.42834e-06
21 1 68.5061 22.0411 93.3553 2.38806e-06 -4.52869e-07 -2.14167e-06
94 1 66.9082 21.2101 96.041 1.44115e-06 -8.07792e-07 -2.28651e-06
98 1 67.1248 20.0105 93.658 6.55177e-07 2.53661e-06 -3.39481e-07
102 1 69.5449 20.1614 95.0039 1.08269e-06 2.03594e-06 -6.8511e-07
103 1 68.9144 22.628 96.0506 -8.53426e-07 6.45057e-07 -1.17929e-06
22 1 72.3771 21.2258 93.0106 -0.382979 0.0699091 -0.128676
24 1 72.9564 23.5912 92.9931 -0.765252 0.0191128 0.566478
100 1 70.8151 22.2749 94.3963 -9.48134e-07 5.68919e-06 -1.75287e-06
105 1 72.1393 19.6158 94.7879 -0.407558 0.548482 0.179086
107 1 73.2652 22.5322 95.551 -0.508349 0.112301 -0.662314
25 1 56.7872 25.7801 92.7667 0.349957 0.547078 0.789885
109 1 55.7333 24.8591 94.6113 0.291307 0.0830343 0.962457
112 1 57.4722 26.6229 95.5979 -0.218683 -0.689302 0.0372438
110 1 58.0526 24.0656 96.0692 -1.5833e-06 -8.21071e-06 1.23595e-08
113 1 59.9265 25.8329 95.3847 9.61208e-06 1.05443e-06 -3.72215e-06
30 1 59.6704 25.7569 92.7913 -2.14978e-07 -7.94482e-07 -1.57153e-06
114 1 61.7449 27.0041 94.1954 1.80301e-06 1.18629e-07 2.90747e-06
119 1 62.423 24.4581 94.3458 -4.65201e-07 -3.78053e-07 6.78595e-06
115 1 64.297 26.9433 93.7151 -3.40252e-07 5.94353e-06 -1.5249e-06
120 1 64.6867 24.5335 93.1537 -2.77149e-06 4.87725e-07 1.38041e-06
121 1 64.5378 27.5977 96.097 -7.53768e-07 8.12157e-07 7.73528e-07
122 1 64.7379 25.0699 95.5465 -4.448e-07 3.87914e-07 -4.65946e-06
99 1 66.8655 23.6726 94.5803 -2.30555e-06 2.14869e-06 -4.51999e-07
42 1 68.697 24.55 92.8294 1.45959e-06 3.08176e-06 -3.17271e-06
123 1 66.8227 26.4066 96.0165 -5.60722e-07 -1.26421e-06 -2.65006e-06
124 1 66.7306 26.0139 93.4979 3.35747e-06 3.09799e-07 3.65374e-06
125 1 68.9263 25.2635 95.382 -2.82467e-06 3.62548e-06 2.01303e-06
44 1 71.1146 27.5397 92.6366 -0.368506 -0.240859 0.512972
128 1 70.9634 24.6829 94.0992 -1.64677e-07 -1.41645e-06 -2.97339e-06
129 1 73.1027 25.85 94.0647 -0.0484309 0.215347 -0.328792
132 1 70.9689 26.9917 95.2148 1.31881e-06 3.36517e-06 -2.47292e-06
130 1 75.0529 24.2563 95.5755 -0.568795 0.036082 0.667452
45 1 57.7727 30.2782 92.9847 0.0862385 -0.239327 0.548238
135 1 58.4157 27.7493 93.5268 -0.367187 -0.364531 -0.0595266
136 1 58.5438 31.0334 95.842 -0.300574 -0.023332 -0.103517
138 1 56.8813 29.013 94.7323 0.304365 0.0674984 1.13779
137 1 59.1266 28.292 96.095 8.29261e-06 2.11862e-06 -5.75288e-06
48 1 60.3822 28.3972 92.5755 -1.52973e-07 -1.57006e-07 -3.15325e-06
140 1 62.1488 28.6899 96.0461 9.3756e-08 1.6769e-06 -2.155e-06
141 1 60.0726 29.8221 94.4785 -9.94375e-06 1.84742e-06 6.76244e-06
142 1 62.1049 30.2988 93.2209 8.69604e-06 -2.50469e-06 -1.56457e-05
143 1 61.9982 31.2979 95.5302 9.40547e-08 1.47634e-06 2.08597e-06
145 1 64.1626 29.6935 94.6227 -2.62306e-06 1.49945e-06 -6.84265e-06
149 1 66.453 28.4576 94.2148 -3.54362e-07 -2.08705e-06 7.4806e-07
150 1 66.3007 30.9816 93.3833 2.99984e-07 2.11839e-06 5.74485e-06
148 1 66.4927 30.3588 95.9739 4.59514e-07 5.89565e-06 2.26134e-06
127 1 68.7328 28.6134 95.3651 -4.04263e-06 3.2662e-07 -3.0401e-06
58 1 68.5746 27.7374 92.8067 3.11323e-07 -1.59617e-06 -4.61539e-06
151 1 68.7412 30.3121 93.3312 -5.31208e-06 3.35831e-06 -2.638e-06
168 1 68.8328 31.3625 95.6148 -2.82379e-07 5.11235e-07 1.03716e-06
59 1 71.6029 29.9499 93.1991 -0.831865 -0.147634 0.686393
155 1 71.2012 31.5025 95.2267 0.335988 0.0826786 -0.344019
156 1 73.3077 28.1587 95.0961 -0.407296 -0.0267467 0.204162
158 1 71.1712 29.2954 96.2566 3.05437e-06 -1.77014e-06 -1.75763e-06
159 1 73.6741 30.5705 95.7149 -0.900548 -0.486162 0.700479
161 1 59.5652 32.3177 94.2229 0.285583 -0.175493 -0.0297483
162 1 61.7326 32.8032 93.4707 0.638939 -0.188026 0.0192815
163 1 62.4585 33.8371 96.0448 -0.025596 -0.489912 0.689831
147 1 64.3862 31.9615 95.706 -5.94342e-07 1.52415e-06 2.22924e-06
62 1 64.1155 32.1155 93.0353 -0.326829 -0.492289 0.564752
64 1 66.3464 33.5583 92.935 -0.133979 -0.646636 -0.00800347
165 1 63.9786 34.1371 94.4318 1.04787 -0.499948 -0.555448
166 1 66.6312 32.7636 95.1755 8.51987e-08 4.35827e-06 3.59591e-06
169 1 68.9987 33.1446 93.7526 -0.872993 -0.420375 0.721506
170 1 68.1991 34.5325 95.7463 0.374375 -0.556989 0.396535
68 1 62.8508 16.5915 96.552 1.29048 0.700521 -0.986675
69 1 62.383 18.6142 97.7689 3.79233e-06 -3.9378e-06 3.02073e-06
173 1 59.9282 18.4502 98.598 0.71545 0.310316 -0.344545
174 1 61.0741 16.5217 97.8701 -0.451772 0.218532 0.544401
74 1 64.9413 19.1001 96.6296 -1.61151e-06 -5.61294e-07 -4.79413e-06
175 1 63.7198 16.9424 99.4718 -0.0913233 0.0094761 0.23466
179 1 65.4347 16.9107 98.0376 0.104364 0.343853 -0.909696
180 1 64.479 19.365 99.0142 2.55224e-06 -2.48838e-06 2.65821e-06
73 1 67.7088 17.2642 97.5967 -0.848318 -0.251731 0.682823
79 1 69.8071 17.5783 96.9972 -0.867424 0.358979 1.04173
184 1 66.6762 18.0289 99.8889 2.67724e-06 -3.9464e-06 2.98815e-06
186 1 69.212 18.3626 99.4325 5.40855e-06 -2.34188e-06 -1.46097e-07
81 1 73.5933 18.7421 97.4035 -0.284785 0.789443 0.137505
185 1 71.3361 19.0806 98.1895 2.19593e-06 5.8444e-06 -2.72727e-06
188 1 70.5973 16.1069 99.35 -0.19827 0.762874 0.225268
190 1 72.5378 16.9686 98.5735 0.289237 0.654676 0.00334802
85 1 58.3004 21.6759 96.6618 0.780782 -0.517199 -0.926099
192 1 57.1308 22.7286 98.2164 -0.235424 1.0889 0.732982
90 1 60.7572 20.968 97.2478 5.17254e-07 -1.67812e-06 5.64692e-07
91 1 60.7786 23.5914 96.6208 -1.25707e-06 -1.47678e-07 -1.32869e-06
193 1 59.526 23.1583 98.9875 -4.36388e-06 1.99702e-06 2.14298e-06
195 1 59.4457 20.6567 99.2503 0.57556 -0.0223406 -0.604496
198 1 61.9544 19.9692 99.7373 -2.9217e-06 1.08235e-06 6.15918e-06
201 1 61.9841 22.5622 98.8612 8.50369e-07 1.90291e-06 8.99191e-08
197 1 63.2731 20.9705 97.2777 -6.15642e-06 4.44776e-06 2.91657e-06
203 1 65.3996 21.7887 98.1694 -1.07053e-07 -1.66172e-06 -2.04276e-06
75 1 66.9018 19.7405 98.1946 2.93596e-06 5.55245e-06 -3.82205e-06
101 1 69.1717 20.1802 97.468 -1.1725e-06 -1.52544e-06 -3.78455e-06
204 1 67.8461 22.2539 98.435 -4.9788e-07 -1.8337e-06 -6.15433e-06
106 1 71.453 21.1001 96.6117 -2.51965e-06 -8.45365e-07 -1.65033e-06
209 1 70.4115 22.1293 98.6301 2.98198e-07 -1.64684e-06 1.79216e-06
216 1 72.7039 21.0831 98.9459 -1.20801e-06 -3.66371e-07 3.18199e-06
215 1 73.5184 23.3631 97.7979 -7.08907e-07 -4.10554e-06 -3.39846e-06
108 1 75.7735 22.4072 97.4878 -0.475931 0.711476 0.0228518
214 1 75.0845 20.6686 98.9167 -0.0690286 0.390998 0.499715
111 1 56.5046 25.2469 97.5985 0.792994 -0.0719165 0.254715
220 1 58.1458 27.3471 98.3393 0.420174 -0.166275 -0.969985
224 1 56.7715 26.5051 99.9844 0.415938 -0.613825 0.448233
117 1 59.2465 25.2934 97.7277 1.46759e-07 2.35319e-06 3.96336e-06
116 1 62.4128 25.9239 96.4418 -2.16408e-06 4.14958e-06 4.5915e-06
226 1 61.7596 25.1713 98.8407 -5.40671e-06 -1.09813e-06 1.66372e-06
252 1 60.7148 27.366 97.7887 4.20588e-06 9.14342e-07 5.40431e-06
97 1 66.4511 23.9281 97.1221 1.67953e-06 -3.74884e-06 -4.16132e-06
92 1 63.5197 23.7194 97.2883 -3.84211e-06 -9.26731e-07 -9.95435e-07
118 1 63.1608 27.5159 98.3013 1.90379e-06 -4.43682e-07 3.16187e-06
231 1 65.1245 25.9604 98.0335 -1.78317e-06 4.78949e-07 6.35022e-06
233 1 64.8442 23.851 99.5518 -3.21952e-06 -6.9649e-07 5.09024e-08
232 1 67.0882 25.2554 99.6164 2.00387e-06 -6.86376e-08 -6.12647e-07
237 1 68.9016 24.5762 97.8094 -1.0229e-06 1.16175e-06 -2.99126e-06
238 1 68.7582 27.1784 97.4887 2.18412e-06 2.91735e-06 -9.84526e-07
236 1 69.6972 26.2256 99.8089 2.64133e-07 -1.88679e-06 -3.99e-06
104 1 71.1009 23.6953 96.6382 -5.61135e-07 5.51396e-06 1.94546e-07
212 1 71.6772 24.3382 99.3042 -3.74231e-06 -4.32534e-07 9.34313e-08
126 1 70.9791 26.1078 97.6398 -4.8269e-06 2.32834e-06 9.23325e-08
131 1 72.9238 25.3267 96.3379 -2.31693e-06 -1.6697e-06 -3.2579e-07
243 1 73.7292 25.7391 98.7068 3.39425e-06 -4.76806e-06 -7.39337e-07
241 1 72.1146 26.9987 100.07 1.16118e-07 -3.92793e-06 -1.03062e-06
133 1 75.1094 26.5393 96.7461 -0.387614 -0.102755 0.2366
242 1 75.8662 24.6466 98.6304 -0.41007 -0.455096 0.218797
246 1 75.7762 26.9663 99.6838 -0.560603 -0.0469069 0.228971
139 1 57.6255 29.8106 97.5494 0.437161 -0.654924 0.38093
249 1 57.1665 28.9373 99.7626 0.400085 0.234402 0.707289
144 1 60.4181 30.1594 97.1344 2.92158e-06 4.59242e-07 -1.68308e-06
248 1 59.5514 31.5585 99.0059 0.159434 -0.0847168 0.34558
250 1 59.6217 29.0802 99.3035 2.47292e-06 3.17359e-06 -4.24448e-06
253 1 62.1019 29.7527 98.8567 -2.00518e-06 6.04808e-07 -1.1941e-07
146 1 64.2049 29.7783 97.3281 3.3755e-06 8.50541e-07 -1.57074e-06
257 1 65.1862 28.1982 99.5827 -5.65509e-07 4.65735e-06 3.27111e-06
259 1 65.7089 31.6188 98.2061 -2.05727e-06 4.03114e-06 1.05806e-06
152 1 66.5153 28.4287 97.5382 -1.74945e-06 -2.96793e-06 -2.9933e-07
256 1 64.2193 30.5245 99.9706 -5.66667e-06 3.51573e-06 1.51656e-06
154 1 68.6494 29.822 97.6949 4.12226e-06 -1.6244e-06 -8.48025e-07
258 1 67.7607 27.7691 99.8353 -2.66128e-06 2.67098e-06 3.09617e-06
261 1 66.8883 30.1334 99.8409 3.55383e-06 5.28722e-06 -7.4569e-08
134 1 72.873 27.6898 97.4596 1.47558e-06 5.08827e-07 -3.13654e-06
153 1 70.6836 28.5641 98.668 3.71434e-06 -5.38435e-07 -3.28637e-06
160 1 72.8564 29.9967 98.2123 1.12978e-06 -1.21207e-06 -6.38465e-07
264 1 70.8247 31.5326 97.7675 3.13985e-06 -9.43617e-07 3.15748e-06
270 1 73.3616 31.5136 100.019 -0.674788 0.447569 0.94778
157 1 75.0986 28.8751 97.7488 -0.60525 -0.115601 0.333422
271 1 75.3622 30.8144 99.3708 0.472844 -0.755103 -0.171117
164 1 60.6239 32.779 97.0792 -0.162733 -0.548244 0.323278
276 1 62.6117 34.3528 98.734 1.57737 -0.193762 -0.155865
277 1 60.5701 33.9086 99.4795 -0.703605 -0.483388 0.0818098
167 1 65.224 33.8363 97.2766 -0.0607759 -0.064071 0.144437
275 1 63.074 32.0408 97.9001 -1.21676e-07 -1.76377e-06 -5.36965e-06
282 1 65.0959 35.2273 99.5307 0.690442 -0.592706 -0.22219
263 1 68.7467 31.7061 99.315 7.41347e-06 2.05995e-06 4.37011e-06
281 1 67.7847 32.6984 97.3742 -8.57316e-06 2.59923e-06 -5.0501e-06
283 1 67.603 34.9385 98.3057 -0.16282 -0.263754 0.447353
287 1 69.9384 33.9141 98.4282 -0.23942 -0.181397 0.646464
171 1 70.9128 33.7329 96.3342 -0.296311 -0.760612 -0.272515
172 1 73.3513 32.3462 97.4753 -0.578217 -0.545487 0.0216178
292 1 72.5493 33.7552 99.2678 -0.879637 -0.450151 -0.0911015
176 1 61.9575 17.588 100.725 -0.448975 0.852436 0.286613
177 1 64.2864 16.339 102.203 0.536478 0.84122 -0.0845545
178 1 64.2064 18.7122 101.347 -5.11724e-06 -1.85221e-06 5.56412e-08
181 1 66.1498 15.7971 100.648 -0.52654 0.49063 0.421101
294 1 63.2007 18.2177 103.585 0.498462 0.737411 -0.352575
182 1 66.6813 17.9099 102.279 -7.36923e-06 -6.19194e-06 -7.27698e-06
183 1 68.4354 15.9286 100.083 -0.349748 0.949634 0.413268
297 1 66.7562 15.5375 103.555 -0.728625 0.329532 -0.331683
298 1 69.1817 18.7635 101.916 -5.5458e-06 -1.77406e-06 3.33603e-08
300 1 68.7131 16.4624 102.876 -0.634148 0.530363 0.356917
187 1 70.7904 16.7278 102.136 0.502965 0.280133 -0.103358
189 1 72.4472 17.9197 101.119 -0.453188 -0.157084 0.00288622
302 1 72.6462 19.2203 103.273 -3.70699e-06 1.53451e-07 -2.26436e-06
191 1 74.2337 18.8886 100.228 0.3825 0.604079 -0.284028
305 1 75.1156 18.295 102.999 -0.418545 0.895795 -0.729116
194 1 58.5191 21.819 100.909 -0.0752259 1.21377 0.972948
308 1 58.0406 23.0678 102.995 0.601447 0.219999 -0.289283
196 1 60.9715 19.6238 102.062 0.196978 -0.0145201 -0.124132
199 1 61.1584 21.9177 101.119 -6.34559e-08 -5.85947e-07 -7.8728e-07
307 1 60.291 21.6863 103.642 0.410655 0.258895 -0.481254
200 1 63.8691 21.5602 100.233 -5.69618e-07 8.21466e-08 -1.21883e-06
202 1 65.0612 22.2574 102.389 -1.63215e-06 2.73946e-07 1.25174e-06
310 1 63.0443 20.774 102.504 -2.09542e-06 1.31557e-06 -2.48766e-08
205 1 66.1557 20.411 100.698 -1.39723e-06 -4.42431e-06 -1.99237e-06
314 1 65.2905 19.8559 103.335 9.32433e-07 6.95559e-07 -1.42041e-06
206 1 68.8446 20.9593 100.392 -4.72482e-06 -1.66632e-07 -2.44013e-06
208 1 66.998 22.8329 100.838 -1.99963e-06 1.48534e-06 -3.14143e-06
315 1 67.6918 20.7588 102.688 -4.00665e-06 2.00166e-06 -5.27813e-07
239 1 69.1524 22.922 102.374 1.2995e-06 -2.07744e-07 4.68964e-06
337 1 66.9488 23.1247 103.754 2.88726e-08 3.12356e-07 -9.80654e-07
211 1 71.4192 22.4648 101.052 1.31138e-07 -3.22569e-06 1.24112e-06
210 1 71.1301 19.9114 100.535 -3.00987e-06 1.817e-06 2.65936e-06
321 1 70.6456 20.7141 102.86 1.00832e-07 -4.34449e-07 -4.50482e-07
326 1 73.3683 20.8799 101.577 1.01196e-06 1.93516e-06 -2.79097e-06
324 1 71.3195 23.1726 103.723 -5.91265e-07 3.28095e-06 -3.23319e-06
213 1 74.0458 22.9002 100.123 2.04141e-06 -1.26832e-06 5.4678e-06
217 1 75.8417 20.6654 101.894 -0.591478 0.0382695 0.0631631
218 1 76.4171 22.6296 100.517 -0.42633 0.0516789 -0.104693
219 1 74.7473 22.9275 102.614 -8.48996e-07 -2.58617e-06 -1.23763e-06
327 1 77.1328 22.8099 103.531 -0.403561 0.157402 -0.433065
223 1 59.2678 25.4702 100.144 1.14912e-06 -1.10411e-06 -3.31501e-06
222 1 57.1538 24.0464 100.343 0.943733 0.0941169 0.0119525
225 1 59.1259 27.5548 101.458 0.406297 0.73406 -0.313117
330 1 58.434 25.5013 102.509 0.289675 -0.354599 -0.0154923
221 1 60.2462 23.8233 102.268 1.45286e-07 4.90159e-06 -1.92414e-07
229 1 61.4961 25.6679 101.352 1.49505e-06 3.37897e-08 3.60871e-06
331 1 62.0391 25.3486 103.751 3.40353e-06 -3.91617e-07 7.86904e-07
228 1 63.1325 23.7622 101.59 -1.40191e-06 3.56591e-06 4.02539e-06
227 1 65.6881 24.7476 101.855 -6.30524e-08 5.60437e-06 2.11851e-06
230 1 63.8765 26.1193 100.442 -1.66623e-06 -5.68457e-07 -3.24212e-06
335 1 64.0508 26.5387 103.053 -2.83804e-06 4.94695e-07 4.32737e-07
235 1 66.128 27.2333 101.723 1.97815e-06 -9.2179e-07 1.65766e-06
207 1 69.2552 23.7746 100.124 2.04608e-06 2.58151e-06 -1.06384e-06
234 1 68.3428 25.505 102.006 -3.68416e-06 -2.72157e-06 1.36937e-06
345 1 70.192 27.5352 101.978 2.7071e-06 4.45909e-06 -8.31322e-08
240 1 71.0278 24.9836 101.744 1.18964e-06 8.98615e-07 4.17719e-07
244 1 73.7207 25.1494 101.125 2.41269e-07 2.82085e-07 -2.41951e-06
346 1 72.6245 26.9904 102.543 2.70823e-06 2.57885e-06 1.46699e-06
349 1 73.3788 24.8 103.629 -5.97637e-06 -7.06763e-06 2.03947e-06
245 1 76.237 24.8833 101.57 -0.354213 -0.0498669 -0.0257295
247 1 75.1142 26.9962 102.336 3.16472e-06 2.05198e-06 1.7598e-06
354 1 77.406 26.7544 103.644 -0.767096 0.176929 -0.312102
251 1 59.1439 30.3529 101.334 0.222113 -0.133369 0.0638156
254 1 61.5181 27.782 100.262 -2.8205e-06 -6.15673e-07 -7.0651e-07
255 1 61.5119 30.0102 101.771 9.94057e-07 -7.35279e-07 9.50115e-07
356 1 61.5404 27.6847 102.879 1.66118e-06 -6.17431e-07 1.51404e-06
357 1 60.752 31.417 103.81 0.962023 -0.335642 -0.688842
361 1 63.6415 28.5481 101.543 7.10297e-07 -8.82569e-07 -8.93961e-07
362 1 63.6705 31.3575 102.338 3.64401e-06 -1.41662e-06 -1.60183e-07
363 1 63.1036 29.5127 103.86 6.45926e-07 -1.35204e-06 -5.09998e-06
368 1 65.7723 29.9003 102.071 -2.67058e-07 3.02847e-06 -2.65192e-06
260 1 67.9734 28.7797 102.578 1.0878e-06 -7.95899e-07 2.11566e-06
262 1 68.2322 31.4321 101.84 5.36612e-06 1.4886e-06 1.88805e-06
265 1 69.3862 29.5648 100.534 -4.09825e-06 6.11404e-07 1.44612e-06
266 1 71.907 29.37 101.066 3.55772e-06 -3.21914e-06 2.7288e-06
267 1 70.26 30.1678 102.949 3.77865e-07 -9.87018e-07 -4.35363e-07
371 1 72.5308 31.5441 102.477 1.57117e-06 3.33857e-06 6.81861e-06
375 1 73.6058 29.2192 103.088 -1.3296e-06 -1.37071e-06 -1.74879e-06
289 1 70.9769 31.6877 100.413 -9.29419e-07 1.28891e-06 1.97685e-06
268 1 74.2663 28.805 100.468 -1.10033e-07 -4.81904e-06 -1.28021e-06
269 1 76.7089 28.7401 101.712 -0.462733 -0.493867 -0.184493
272 1 75.3511 30.6502 102.209 -0.640949 0.304461 -0.350287
274 1 61.8804 31.9008 100.128 -1.18792e-06 3.62221e-06 3.96837e-07
273 1 59.8501 32.7895 101.441 0.627095 -0.884308 0.212422
280 1 62.4243 33.4019 102.014 -0.249036 -0.140348 0.141281
278 1 63.587 35.4011 101.328 0.324645 -0.762751 0.0570925
279 1 64.2826 33.0288 100.278 5.35516e-06 1.66588e-06 -1.10805e-06
379 1 64.7018 34.0554 103.863 -0.611866 -1.03452 0.265044
383 1 66.2862 34.8787 102.482 -0.256585 -0.34189 -0.35134
284 1 65.9925 32.4203 102.41 1.07581e-06 -4.75209e-07 3.67743e-06
285 1 66.8628 33.2857 100.101 -2.5656e-06 -1.83646e-06 -1.18736e-06
286 1 67.8169 35.5867 100.999 0.23921 -0.447681 -0.948254
288 1 70.0884 35.739 100.43 0.570386 -0.501825 -0.115788
290 1 69.4061 33.5267 100.821 6.08996e-07 -1.96838e-06 -7.1348e-06
382 1 68.578 33.7853 103.009 0.0222269 0.161123 -0.0316501
291 1 71.9382 33.9721 101.583 0.0155395 -0.775489 -0.215515
388 1 70.891 34.7865 103.475 -0.396601 -0.625879 0.557132
293 1 74.4534 33.0961 102.175 -0.470533 -0.650144 -0.492007
295 1 65.9077 17.5829 104.515 0.202541 0.344601 0.0514238
296 1 65.0106 19.463 105.808 -0.237639 0.345726 0.0635152
299 1 68.7515 18.7532 104.5 -4.37191e-06 -3.30962e-06 -3.88874e-06
301 1 68.778 16.4851 105.741 -0.000874685 0.845943 -0.732985
392 1 67.7269 18.3709 106.934 0.2553 0.473446 -0.650293
303 1 73.3224 17.0447 103.9 -0.489867 0.143342 -0.0180313
304 1 71.0006 17.5138 104.875 -0.260128 0.0733075 -0.574203
393 1 70.5349 18.3102 107.234 -0.264911 0.277378 -0.297575
394 1 73.2925 19.4773 107.065 -0.318797 0.279175 0.0219693
306 1 74.5341 19.0819 105.185 -0.261382 0.301847 -0.748878
309 1 62.268 22.7206 106.492 0.654615 0.211864 -0.458732
311 1 62.6234 20.6307 104.945 0.388895 -0.0232105 -0.140379
313 1 62.4927 22.9039 103.913 -6.34571e-07 -4.31316e-08 3.92574e-07
312 1 64.7962 21.9444 104.952 1.6194e-06 -2.80767e-06 -1.14489e-07
395 1 64.6123 21.4583 107.376 0.160269 0.614169 -0.263148
316 1 67.0529 20.5814 105.115 1.73259e-06 -1.6351e-06 1.94021e-06
317 1 67.7651 22.8523 106.229 5.83048e-07 3.03904e-06 -2.34814e-06
318 1 69.2826 20.3191 106.643 -2.55715e-06 5.75079e-07 -2.33295e-06
320 1 69.2196 21.7371 104.562 -1.88413e-06 1.62841e-06 -7.56378e-07
396 1 67.0914 20.7585 107.581 -0.127661 0.522925 0.473673
319 1 71.0288 22.2205 106.195 -3.55206e-06 -4.75674e-06 -2.97225e-06
322 1 71.3544 19.8841 105.37 -1.26589e-06 -1.75281e-06 9.92199e-07
323 1 73.075 21.4441 104.485 -5.61571e-07 1.52522e-06 2.03023e-06
402 1 73.2989 22.1948 107.323 6.76695e-06 -3.0012e-06 2.80143e-07
325 1 74.5238 23.257 105.394 5.25091e-07 1.04238e-07 -2.03202e-06
328 1 75.5795 21.2494 104.395 -0.249422 -0.367122 0.0284351
329 1 76.8369 23.0203 106.223 0.0688018 -0.259679 -1.15601
406 1 75.273 21.0502 106.966 0.322151 -0.310701 -0.53538
332 1 60.2488 24.1454 104.767 0.141787 -0.244132 -0.0227577
334 1 60.0229 26.7257 104.739 0.803516 -0.227311 -0.0875922
408 1 61.1669 25.7037 107.309 0.722071 0.259502 -0.799808
358 1 62.7411 27.4051 105.26 1.89965e-06 1.88214e-06 3.5316e-06
338 1 64.6474 24.3363 104.152 -1.22338e-06 -1.94691e-06 -2.13431e-06
333 1 63.1022 24.9691 106.007 -1.8599e-06 2.83984e-06 1.24848e-06
339 1 65.4107 23.8636 106.787 -6.41849e-07 1.49018e-06 -5.81801e-07
341 1 65.1392 26.4994 105.914 1.28095e-06 3.77031e-07 -3.78074e-06
336 1 66.6954 25.9683 103.967 -4.46822e-06 7.50176e-07 -1.78814e-06
340 1 67.5206 25.6903 106.482 4.29644e-07 4.35561e-07 -4.8778e-07
342 1 68.9401 24.468 104.498 -2.4117e-06 4.86587e-06 -2.24039e-06
416 1 69.8618 24.5534 106.923 -6.35338e-07 -5.56378e-08 3.36156e-06
344 1 69.7752 27.2114 106.645 3.03714e-06 8.12809e-07 -3.75551e-07
367 1 68.9741 27.1399 104.22 1.25903e-06 -4.17468e-06 -7.6229e-07
347 1 71.0332 25.7523 104.161 -2.95546e-06 -2.60591e-06 -1.37324e-06
348 1 72.3191 24.294 105.945 -1.80015e-06 -2.27206e-06 2.0499e-06
350 1 72.3022 26.739 106.057 -2.16499e-06 -5.51872e-06 -4.9354e-06
351 1 75.9904 24.847 104.119 -0.230838 -0.0157349 -0.142086
352 1 75.6385 25.1416 106.593 -0.59788 -0.501085 0.285229
353 1 74.5368 26.7435 104.788 -2.51097e-06 -4.48637e-06 -3.51613e-06
355 1 76.8845 27.0493 106.103 0.391756 0.45038 -0.959453
426 1 74.9052 27.3723 107.289 -0.428929 -0.0705669 0.331406
359 1 59.92 29.1185 104.059 0.748737 0.0308526 -0.39048
360 1 62.3135 30.1984 106.023 0.276384 0.0227413 -0.0325135
428 1 61.2521 28.2683 106.988 0.453382 -0.590335 -0.240891
364 1 65.444 28.3677 104.052 2.99961e-06 -6.52008e-07 -1.74334e-06
365 1 65.3623 30.9517 104.493 -2.46046e-06 -1.80127e-06 -4.23373e-06
430 1 64.565 29.0855 106.447 -1.43059e-06 3.47788e-06 -4.50761e-06
366 1 67.9155 30.7392 104.286 -7.66501e-06 -3.62183e-06 1.18874e-06
343 1 67.3653 28.3998 105.662 6.79637e-06 1.24347e-06 4.51477e-07
369 1 66.6487 30.7358 106.644 4.0916e-08 3.08499e-06 -1.77136e-06
370 1 69.7953 29.618 105.612 4.03746e-06 1.9266e-06 2.49404e-06
372 1 71.4362 28.3464 104.273 -3.11126e-06 -1.77113e-06 -7.14424e-07
373 1 73.6895 28.9187 105.587 4.43794e-06 -2.71007e-06 2.45352e-07
374 1 72.3026 30.8927 104.861 -3.94818e-06 -3.09283e-06 -3.87645e-06
438 1 71.7258 30.5254 107.26 -8.90561e-07 -3.90065e-07 -7.1623e-07
376 1 75.9958 28.7492 104.126 -0.380761 -0.0902366 0.282947
377 1 76.1766 29.3605 106.852 0.176779 0.0238991 -0.982003
378 1 74.9911 30.991 104.745 -0.666836 -0.156517 -0.12232
380 1 63.3146 32.1881 104.786 -0.118042 -0.343859 -0.278898
381 1 65.7469 33.2892 106.617 0.158254 -0.768235 0.100084
384 1 68.9982 31.7978 106.536 2.69586e-06 -4.96934e-06 6.37597e-08
385 1 67.0895 33.1382 104.716 0.08911 -0.45364 0.0988405
386 1 69.6298 34.5482 105.735 0.463952 -0.99913 -0.83803
445 1 68.3308 33.9218 107.512 -0.573407 -0.826268 0.190021
387 1 70.2459 32.3742 104.304 2.80027e-06 -9.78568e-07 4.08919e-06
390 1 71.9779 33.2165 106.033 -0.704262 -0.461205 0.572276
391 1 73.3434 33.2593 104.275 0.198662 -0.52231 -0.836886
389 1 74.5422 32.1842 106.857 -0.219108 -0.0928508 -1.35635
397 1 65.6972 22.9764 109.509 0.467294 0.136073 -0.892383
399 1 68.3029 21.7691 110.209 -0.16285 0.358293 -0.67415
400 1 69.6388 22.192 108.257 -2.47896e-06 1.68733e-07 -1.00859e-06
401 1 69.5851 19.705 109.206 -0.497663 0.480682 -0.773128
403 1 71.6722 20.5373 108.315 -0.50843 0.807765 0.0686722
405 1 72.3535 22.2314 110.419 -0.455742 0.0973377 -0.59257
421 1 71.785 23.5811 108.426 -5.90782e-06 6.73988e-06 3.67667e-06
404 1 74.3828 21.1515 109.451 -0.461087 0.266217 -0.868519
407 1 75.6297 23.1551 108.204 0.43401 -0.188822 -0.923699
409 1 63.467 24.4471 108.438 0.349806 -0.103437 -0.676828
411 1 65.8382 25.3909 108.826 0.152241 0.476055 -0.206478
412 1 63.5305 26.9551 107.85 0.149065 0.123579 -0.302917
414 1 65.4667 27.6278 110.206 0.239137 -0.265037 -0.637849
398 1 67.81 23.884 108.441 -2.5441e-06 -2.57237e-06 8.47741e-07
410 1 68.0134 24.1606 110.819 -0.825413 0.300894 -0.214941
415 1 67.878 26.6197 111.134 -0.266614 -0.352285 -0.414233
418 1 68.578 26.3763 108.799 -5.87744e-06 2.50766e-06 -2.19487e-06
417 1 70.2152 23.985 110.164 0.24672 0.18129 -0.270286
419 1 71.1548 25.9641 108.69 -1.0227e-06 6.4381e-06 -2.93867e-06
420 1 70.5579 26.6143 111.069 -0.841953 -0.0714106 -0.547304
422 1 72.6467 24.9412 110.829 -0.924161 0.287393 -0.603546
424 1 73.49 25.3749 107.994 9.66631e-07 1.94943e-06 3.9399e-06
425 1 72.7133 27.4225 110.494 -0.37189 -0.743514 -0.38986
423 1 74.1915 23.6325 109.736 -1.05934 -0.11598 0.649411
427 1 75.582 25.5404 109.233 -0.214945 0.5621 -0.434716
413 1 66.3237 27.7677 107.893 7.42187e-07 4.95629e-06 -8.01924e-07
429 1 63.5702 29.3645 108.836 0.792965 -0.436397 -0.795611
431 1 64.5456 31.4432 107.765 0.330063 -0.70265 -0.397977
432 1 66.3313 29.768 109.517 -0.0555871 -0.23253 -0.856351
433 1 68.421 29.3698 107.862 -4.69838e-06 -2.78695e-06 -1.35441e-06
434 1 68.8166 28.6012 110.293 -0.334207 0.38413 -0.0490842
436 1 70.1878 30.7199 109.178 -0.206824 0.0357978 0.0334774
440 1 72.7555 27.9924 108.052 -2.19506e-05 6.07617e-07 1.10244e-05
435 1 70.6262 28.3553 108.874 2.50845e-05 -1.29633e-05 -1.15777e-05
437 1 71.4134 29.1048 111.427 -1.25898 -0.162007 -0.1555
442 1 72.7674 29.8999 109.755 -0.0296271 0.0627427 -0.728089
439 1 74.1427 29.9587 107.701 -0.293171 0.223787 0.498841
441 1 74.731 28.0422 109.731 0.54443 0.204215 -1.01294
443 1 67.3426 31.829 108.778 0.367782 -0.0383846 -0.972945
444 1 70.7483 32.8564 107.997 -0.33265 -0.295874 -0.0301178
446 1 73.3338 32.109 108.73 -1.27626 -0.252664 0.241569
ITEM: TIMESTEP
246
ITEM: NUMBER OF ATOMS
446
ITEM: BOX BOUNDS ss ss ss
5.5713339999999995e+01 7.7426000000000002e+01
1.5530244000000000e+01 3.5746255999999995e+01
8.8719502475339212e+01 1.1144178826537670e+02
ITEM: ATOMS id type x y z fx fy fz
1 1 60.6211 18.7762 92.285 0.824216 -0.0379721 -0.0334844
3 1 63.1104 18.8132 91.7425 0.182005 0.293714 0.429453
5 1 67.1742 19.0999 91.3891 0.307969 0.456725 0.152943
6 1 57.6099 21.7013 91.9157 -0.990727 -0.172115 0.789876
7 1 58.4264 19.964 90.4651 0.612589 0.0178821 0.747866
9 1 59.0492 22.3714 90.2454 0.552951 -0.231708 -0.47058
8 1 60.8576 20.5421 90.4259 0.414355 0.217565 0.206829
11 1 61.5876 23.0054 91.8403 1.92764e-06 5.5453e-06 -2.1042e-06
13 1 61.2205 22.9715 89.2857 0.305896 -0.137023 0.525771
10 1 59.8579 21.4174 92.4276 -3.17808e-06 1.77388e-07 -2.44022e-06
12 1 63.4656 22.4973 88.734 0.654837 -0.205965 0.336833
14 1 63.2781 21.2391 90.8869 -0.717685 0.0171835 0.264175
15 1 65.1436 20.2121 92.1576 2.36235e-07 1.91332e-06 6.66474e-08
16 1 65.2417 20.6393 89.708 0.585167 0.607322 0.42162
17 1 65.9874 23.1159 89.1937 -0.167074 0.0577067 1.01727
20 1 66.1658 22.5247 92.2067 -3.05446e-06 -2.21814e-06 -5.26718e-07
31 1 63.9175 23.6106 90.9779 -6.42451e-07 -1.15047e-06 1.39215e-06
18 1 67.8665 21.4947 90.7915 -0.136021 0.199957 0.556111
19 1 69.8724 19.9772 92.4597 -0.362781 0.892609 0.448154
23 1 70.335 22.6356 91.7207 -0.202669 0.193787 0.777596
27 1 58.0992 26.535 90.954 0.295367 0.257148 -0.0220857
29 1 57.9589 24.1583 91.5789 -0.336347 -0.750078 0.694084
26 1 59.8447 24.6473 90.4424 0.913931 0.350395 0.140938
28 1 60.448 27.0531 90.5252 -0.407372 -0.133141 0.558527
32 1 62.0282 25.4595 91.9664 -3.11482e-06 -2.73948e-06 -1.80545e-06
34 1 61.8362 25.4501 89.3305 0.598009 -0.0458961 0.331963
33 1 64.1108 24.8544 88.9328 0.456625 -0.109441 0.00372016
35 1 64.4365 27.2537 88.9163 1.21136 -0.177195 -0.185911